 vasp.5.4.4.18Apr17-6-g9f103f2a35 (build May 01 2020 14:57:12) complex          
  
 executed on             LinuxIFC date 2020.10.25  22:08:25
 running on  384 total cores
 distrk:  each k-point on   96 cores,    4 groups
 distr:  one band on NCORES_PER_BAND=   1 cores,   96 groups


--------------------------------------------------------------------------------------------------------


 INCAR:
 POTCAR:    PAW_PBE B 06Sep2000                   
 POTCAR:    PAW_PBE N 08Apr2002                   
 POTCAR:    PAW_PBE C 08Apr2002                   
 POTCAR:    PAW_PBE F 08Apr2002                   
 POTCAR:    PAW_PBE O 08Apr2002                   

 ----------------------------------------------------------------------------- 
|                                                                             |
|           W    W    AA    RRRRR   N    N  II  N    N   GGGG   !!!           |
|           W    W   A  A   R    R  NN   N  II  NN   N  G    G  !!!           |
|           W    W  A    A  R    R  N N  N  II  N N  N  G       !!!           |
|           W WW W  AAAAAA  RRRRR   N  N N  II  N  N N  G  GGG   !            |
|           WW  WW  A    A  R   R   N   NN  II  N   NN  G    G                |
|           W    W  A    A  R    R  N    N  II  N    N   GGGG   !!!           |
|                                                                             |
|      For optimal performance we recommend to set                            |
|        NCORE= 4 - approx SQRT( number of cores)                             |
|      NCORE specifies how many cores store one orbital (NPAR=cpu/NCORE).     |
|      This setting can  greatly improve the performance of VASP for DFT.     |
|      The default,   NCORE=1            might be grossly inefficient         |
|      on modern multi-core architectures or massively parallel machines.     |
|      Do your own testing !!!!                                               |
|      Unfortunately you need to use the default for GW and RPA calculations. |
|      (for HF NCORE is supported but not extensively tested yet)             |
|                                                                             |
 ----------------------------------------------------------------------------- 


 ----------------------------------------------------------------------------- 
|                                                                             |
|           W    W    AA    RRRRR   N    N  II  N    N   GGGG   !!!           |
|           W    W   A  A   R    R  NN   N  II  NN   N  G    G  !!!           |
|           W    W  A    A  R    R  N N  N  II  N N  N  G       !!!           |
|           W WW W  AAAAAA  RRRRR   N  N N  II  N  N N  G  GGG   !            |
|           WW  WW  A    A  R   R   N   NN  II  N   NN  G    G                |
|           W    W  A    A  R    R  N    N  II  N    N   GGGG   !!!           |
|                                                                             |
|      You have enabled k-point parallelism (KPAR>1).                         |
|      This developmental code was originally  written by Paul Kent at ORNL,  |
|      and carefully double checked in Vienna.                                |
|      GW as well as linear response parallelism added by Martijn Marsman     |
|      and Georg Kresse.                                                      |
|      Carefully verify results versus KPAR=1.                                |
|      Report problems to Paul Kent and Vienna.                               |
|                                                                             |
 ----------------------------------------------------------------------------- 

 POTCAR:    PAW_PBE B 06Sep2000                   
   VRHFIN =B: s2p1                                                              
   LEXCH  = PE                                                                  
   EATOM  =    71.1703 eV,    5.2309 Ry                                         
                                                                                
   TITEL  = PAW_PBE B 06Sep2000                                                 
   LULTRA =        F    use ultrasoft PP ?                                      
   IUNSCR =        1    unscreen: 0-lin 1-nonlin 2-no                           
   RPACOR =    1.200    partial core radius                                     
   POMASS =   10.811; ZVAL   =    3.000    mass and valenz                      
   RCORE  =    1.700    outmost cutoff radius                                   
   RWIGS  =    1.710; RWIGS  =    0.905    wigner-seitz radius (au A)           
   ENMAX  =  318.614; ENMIN  =  238.960 eV                                      
   ICORE  =        2    local potential                                         
   LCOR   =        T    correct aug charges                                     
   LPAW   =        T    paw PP                                                  
   EAUG   =  535.514                                                            
   DEXC   =    0.000                                                            
   RMAX   =    1.732    core radius for proj-oper                               
   RAUG   =    1.300    factor for augmentation sphere                          
   RDEP   =    1.757    radius for radial grids                                 
   RDEPT  =    1.436    core radius for aug-charge                              
                                                                                
   Atomic configuration                                                         
    4 entries                                                                   
     n  l   j            E        occ.                                          
     1  0  0.50      -180.5896   2.0000                                         
     2  0  0.50        -9.4431   2.0000                                         
     2  1  0.50        -3.6068   1.0000                                         
     3  2  1.50        -4.0817   0.0000                                         
   Description                                                                  
     l       E           TYP  RCUT    TYP  RCUT                                 
     0     -9.4430752     23  1.500                                             
     0      0.8675899     23  1.500                                             
     1     -3.6067955     23  1.700                                             
     1      6.1086146     23  1.700                                             
     2     -4.0817478      7  1.700                                             
  local pseudopotential read in
  partial core-charges read in
  partial kinetic energy density read in
  atomic valenz-charges read in
  non local Contribution for L=           0  read in
    real space projection operators read in
  non local Contribution for L=           0  read in
    real space projection operators read in
  non local Contribution for L=           1  read in
    real space projection operators read in
  non local Contribution for L=           1  read in
    real space projection operators read in
    PAW grid and wavefunctions read in
 
   number of l-projection  operators is LMAX  =           4
   number of lm-projection operators is LMMAX =           8
 
 POTCAR:    PAW_PBE N 08Apr2002                   
   VRHFIN =N: s2p3                                                              
   LEXCH  = PE                                                                  
   EATOM  =   264.5486 eV,   19.4438 Ry                                         
                                                                                
   TITEL  = PAW_PBE N 08Apr2002                                                 
   LULTRA =        F    use ultrasoft PP ?                                      
   IUNSCR =        1    unscreen: 0-lin 1-nonlin 2-no                           
   RPACOR =    1.200    partial core radius                                     
   POMASS =   14.001; ZVAL   =    5.000    mass and valenz                      
   RCORE  =    1.500    outmost cutoff radius                                   
   RWIGS  =    1.400; RWIGS  =    0.741    wigner-seitz radius (au A)           
   ENMAX  =  400.000; ENMIN  =  300.000 eV                                      
   ICORE  =        2    local potential                                         
   LCOR   =        T    correct aug charges                                     
   LPAW   =        T    paw PP                                                  
   EAUG   =  627.112                                                            
   DEXC   =    0.000                                                            
   RMAX   =    1.529    core radius for proj-oper                               
   RAUG   =    1.300    factor for augmentation sphere                          
   RDEP   =    1.514    radius for radial grids                                 
   RDEPT  =    1.338    core radius for aug-charge                              
                                                                                
   Atomic configuration                                                         
    4 entries                                                                   
     n  l   j            E        occ.                                          
     1  0  0.50      -384.7179   2.0000                                         
     2  0  0.50       -18.5828   2.0000                                         
     2  1  0.50        -7.0898   3.0000                                         
     3  2  1.50        -6.8029   0.0000                                         
   Description                                                                  
     l       E           TYP  RCUT    TYP  RCUT                                 
     0    -18.5828119     23  1.200                                             
     0    -13.5018863     23  1.200                                             
     1     -7.0897853     23  1.500                                             
     1      9.5240782     23  1.500                                             
     2     -6.8029130      7  1.500                                             
  local pseudopotential read in
  partial core-charges read in
  partial kinetic energy density read in
  atomic valenz-charges read in
  non local Contribution for L=           0  read in
    real space projection operators read in
  non local Contribution for L=           0  read in
    real space projection operators read in
  non local Contribution for L=           1  read in
    real space projection operators read in
  non local Contribution for L=           1  read in
    real space projection operators read in
    PAW grid and wavefunctions read in
 
   number of l-projection  operators is LMAX  =           4
   number of lm-projection operators is LMMAX =           8
 
 POTCAR:    PAW_PBE C 08Apr2002                   
   VRHFIN =C: s2p2                                                              
   LEXCH  = PE                                                                  
   EATOM  =   147.1560 eV,   10.8157 Ry                                         
                                                                                
   TITEL  = PAW_PBE C 08Apr2002                                                 
   LULTRA =        F    use ultrasoft PP ?                                      
   IUNSCR =        1    unscreen: 0-lin 1-nonlin 2-no                           
   RPACOR =    1.200    partial core radius                                     
   POMASS =   12.011; ZVAL   =    4.000    mass and valenz                      
   RCORE  =    1.500    outmost cutoff radius                                   
   RWIGS  =    1.630; RWIGS  =    0.863    wigner-seitz radius (au A)           
   ENMAX  =  400.000; ENMIN  =  300.000 eV                                      
   ICORE  =        2    local potential                                         
   LCOR   =        T    correct aug charges                                     
   LPAW   =        T    paw PP                                                  
   EAUG   =  644.873                                                            
   DEXC   =    0.000                                                            
   RMAX   =    1.529    core radius for proj-oper                               
   RAUG   =    1.300    factor for augmentation sphere                          
   RDEP   =    1.501    radius for radial grids                                 
   RDEPT  =    1.300    core radius for aug-charge                              
                                                                                
   Atomic configuration                                                         
    4 entries                                                                   
     n  l   j            E        occ.                                          
     1  0  0.50      -273.3789   2.0000                                         
     2  0  0.50       -13.7508   2.0000                                         
     2  1  0.50        -5.2854   2.0000                                         
     3  2  1.50        -5.4423   0.0000                                         
   Description                                                                  
     l       E           TYP  RCUT    TYP  RCUT                                 
     0    -13.7508458     23  1.200                                             
     0     -8.2022199     23  1.200                                             
     1     -5.2854383     23  1.500                                             
     1     34.0145650     23  1.500                                             
     2     -5.4423304      7  1.500                                             
  local pseudopotential read in
  partial core-charges read in
  partial kinetic energy density read in
  atomic valenz-charges read in
  non local Contribution for L=           0  read in
    real space projection operators read in
  non local Contribution for L=           0  read in
    real space projection operators read in
  non local Contribution for L=           1  read in
    real space projection operators read in
  non local Contribution for L=           1  read in
    real space projection operators read in
    PAW grid and wavefunctions read in
 
   number of l-projection  operators is LMAX  =           4
   number of lm-projection operators is LMMAX =           8
 
 POTCAR:    PAW_PBE F 08Apr2002                   
   VRHFIN =F: s2p5                                                              
   LEXCH  = PE                                                                  
   EATOM  =   659.6475 eV,   48.4827 Ry                                         
                                                                                
   TITEL  = PAW_PBE F 08Apr2002                                                 
   LULTRA =        F    use ultrasoft PP ?                                      
   IUNSCR =        1    unscreen: 0-lin 1-nonlin 2-no                           
   RPACOR =    1.200    partial core radius                                     
   POMASS =   18.998; ZVAL   =    7.000    mass and valenz                      
   RCORE  =    1.520    outmost cutoff radius                                   
   RWIGS  =    1.500; RWIGS  =    0.794    wigner-seitz radius (au A)           
   ENMAX  =  400.000; ENMIN  =  300.000 eV                                      
   ICORE  =        2    local potential                                         
   LCOR   =        T    correct aug charges                                     
   LPAW   =        T    paw PP                                                  
   EAUG   =  613.614                                                            
   RMAX   =    1.555    core radius for proj-oper                               
   RAUG   =    1.300    factor for augmentation sphere                          
   RDEP   =    1.539    radius for radial grids                                 
   RDEPT  =    1.299    core radius for aug-charge                              
                                                                                
   Atomic configuration                                                         
    4 entries                                                                   
     n  l   j            E        occ.                                          
     1  0  0.50      -663.3661   2.0000                                         
     2  0  0.50       -29.8995   2.0000                                         
     2  1  0.50       -11.1114   5.0000                                         
     3  2  1.50       -10.8847   0.0000                                         
   Description                                                                  
     l       E           TYP  RCUT    TYP  RCUT                                 
     0    -29.8995018     23  1.200                                             
     0     -9.5240782     23  1.200                                             
     1    -11.1113914     23  1.520                                             
     1      1.3605826     23  1.520                                             
     2    -10.8846608      7  1.500                                             
  local pseudopotential read in
  partial core-charges read in
  partial kinetic energy density read in
  atomic valenz-charges read in
  non local Contribution for L=           0  read in
    real space projection operators read in
  non local Contribution for L=           0  read in
    real space projection operators read in
  non local Contribution for L=           1  read in
    real space projection operators read in
  non local Contribution for L=           1  read in
    real space projection operators read in
    PAW grid and wavefunctions read in
 
   number of l-projection  operators is LMAX  =           4
   number of lm-projection operators is LMMAX =           8
 
 POTCAR:    PAW_PBE O 08Apr2002                   
   VRHFIN =O: s2p4                                                              
   LEXCH  = PE                                                                  
   EATOM  =   432.3788 eV,   31.7789 Ry                                         
                                                                                
   TITEL  = PAW_PBE O 08Apr2002                                                 
   LULTRA =        F    use ultrasoft PP ?                                      
   IUNSCR =        1    unscreen: 0-lin 1-nonlin 2-no                           
   RPACOR =    1.200    partial core radius                                     
   POMASS =   16.000; ZVAL   =    6.000    mass and valenz                      
   RCORE  =    1.520    outmost cutoff radius                                   
   RWIGS  =    1.550; RWIGS  =    0.820    wigner-seitz radius (au A)           
   ENMAX  =  400.000; ENMIN  =  300.000 eV                                      
   ICORE  =        2    local potential                                         
   LCOR   =        T    correct aug charges                                     
   LPAW   =        T    paw PP                                                  
   EAUG   =  605.392                                                            
   DEXC   =    0.000                                                            
   RMAX   =    1.553    core radius for proj-oper                               
   RAUG   =    1.300    factor for augmentation sphere                          
   RDEP   =    1.550    radius for radial grids                                 
   RDEPT  =    1.329    core radius for aug-charge                              
                                                                                
   Atomic configuration                                                         
    4 entries                                                                   
     n  l   j            E        occ.                                          
     1  0  0.50      -514.6923   2.0000                                         
     2  0  0.50       -23.9615   2.0000                                         
     2  1  0.50        -9.0305   4.0000                                         
     3  2  1.50        -9.5241   0.0000                                         
   Description                                                                  
     l       E           TYP  RCUT    TYP  RCUT                                 
     0    -23.9615318     23  1.200                                             
     0     -9.5240782     23  1.200                                             
     1     -9.0304911     23  1.520                                             
     1      8.1634956     23  1.520                                             
     2     -9.5240782      7  1.500                                             
  local pseudopotential read in
  partial core-charges read in
  partial kinetic energy density read in
  kinetic energy density of atom read in
  atomic valenz-charges read in
  non local Contribution for L=           0  read in
    real space projection operators read in
  non local Contribution for L=           0  read in
    real space projection operators read in
  non local Contribution for L=           1  read in
    real space projection operators read in
  non local Contribution for L=           1  read in
    real space projection operators read in
    PAW grid and wavefunctions read in
 
   number of l-projection  operators is LMAX  =           4
   number of lm-projection operators is LMMAX =           8
 
 Optimization of the real space projectors (new method)

 maximal supplied QI-value         = 22.11
 optimisation between [QCUT,QGAM] = [ 11.94, 23.88] = [ 39.92,159.67] Ry 
 Optimized for a Real-space Cutoff    1.18 Angstroem

   l    n(q)    QCUT    max X(q) W(low)/X(q) W(high)/X(q)  e(spline) 
   0      8    11.939    53.033    0.11E-03    0.34E-03    0.60E-07
   0      8    11.939    34.740    0.11E-03    0.34E-03    0.59E-07
   1      8    11.939    30.949    0.22E-03    0.20E-03    0.17E-06
   1      8    11.939    19.518    0.20E-03    0.18E-03    0.16E-06
 Optimization of the real space projectors (new method)

 maximal supplied QI-value         = 25.13
 optimisation between [QCUT,QGAM] = [ 11.81, 23.88] = [ 39.08,159.64] Ry 
 Optimized for a Real-space Cutoff    1.41 Angstroem

   l    n(q)    QCUT    max X(q) W(low)/X(q) W(high)/X(q)  e(spline) 
   0     10    11.813    79.467    0.48E-04    0.30E-04    0.67E-06
   0     10    11.813    66.151    0.47E-04    0.30E-04    0.67E-06
   1     10    11.813    20.169    0.11E-03    0.17E-03    0.11E-05
   1     10    11.813    14.454    0.11E-03    0.17E-03    0.11E-05
 Optimization of the real space projectors (new method)

 maximal supplied QI-value         = 25.13
 optimisation between [QCUT,QGAM] = [ 11.81, 23.88] = [ 39.08,159.64] Ry 
 Optimized for a Real-space Cutoff    1.18 Angstroem

   l    n(q)    QCUT    max X(q) W(low)/X(q) W(high)/X(q)  e(spline) 
   0      8    11.813   115.676    0.10E-03    0.16E-03    0.35E-06
   0      8    11.813    87.132    0.10E-03    0.16E-03    0.35E-06
   1      8    11.813     4.429    0.16E-03    0.13E-04    0.22E-06
   1      8    11.813     2.733    0.13E-03    0.10E-04    0.18E-06
 Optimization of the real space projectors (new method)

 maximal supplied QI-value         = 24.76
 optimisation between [QCUT,QGAM] = [ 11.88, 24.01] = [ 39.54,161.47] Ry 
 Optimized for a Real-space Cutoff    1.18 Angstroem

   l    n(q)    QCUT    max X(q) W(low)/X(q) W(high)/X(q)  e(spline) 
   0      8    11.883    14.049    0.56E-04    0.86E-04    0.22E-06
   0      8    11.883     8.945    0.81E-04    0.11E-03    0.30E-06
   1      8    11.883     7.086    0.16E-03    0.15E-04    0.31E-06
   1      8    11.883     6.747    0.15E-03    0.14E-04    0.28E-06
 Optimization of the real space projectors (new method)

 maximal supplied QI-value         = 24.76
 optimisation between [QCUT,QGAM] = [ 11.88, 24.01] = [ 39.54,161.47] Ry 
 Optimized for a Real-space Cutoff    1.18 Angstroem

   l    n(q)    QCUT    max X(q) W(low)/X(q) W(high)/X(q)  e(spline) 
   0      8    11.883    20.381    0.86E-04    0.11E-03    0.31E-06
   0      8    11.883    15.268    0.94E-04    0.12E-03    0.33E-06
   1      8    11.883     5.964    0.19E-03    0.18E-04    0.33E-06
   1      8    11.883     5.382    0.17E-03    0.20E-04    0.29E-06
  PAW_PBE B 06Sep2000                   :
 energy of atom  1       EATOM=  -71.1703
 kinetic energy error for atom=    0.0009 (will be added to EATOM!!)
  PAW_PBE N 08Apr2002                   :
 energy of atom  2       EATOM= -264.5486
 kinetic energy error for atom=    0.0116 (will be added to EATOM!!)
  PAW_PBE C 08Apr2002                   :
 energy of atom  3       EATOM= -147.1560
 kinetic energy error for atom=    0.0066 (will be added to EATOM!!)
  PAW_PBE F 08Apr2002                   :
 energy of atom  4       EATOM= -659.6475
 kinetic energy error for atom=    0.0296 (will be added to EATOM!!)
  PAW_PBE O 08Apr2002                   :
 energy of atom  5       EATOM= -432.3788
 kinetic energy error for atom=    0.0194 (will be added to EATOM!!)
 
 
 POSCAR: B N C F O                               
  positions in direct lattice
  velocities in cartesian coordinates

 METAGGA = SCAN     LMAXTAU =  6    LMIXTAU =  F

 exchange correlation table for  LEXCH =        8
   RHO(1)=    0.500       N(1)  =     2000
   RHO(2)=  100.500       N(2)  =     4000
 


--------------------------------------------------------------------------------------------------------


 ion  position               nearest neighbor table
   1  0.167  0.083  0.501-  20 1.45  17 1.45  21 1.45
   2  0.167  0.333  0.501-  18 1.45  17 1.45  22 1.45
   3  0.167  0.583  0.501-  18 1.45  19 1.45  23 1.45
   4  0.167  0.833  0.501-  20 1.45  19 1.45  24 1.45
   5  0.417  0.083  0.501-  24 1.45  21 1.45  25 1.45
   6  0.417  0.333  0.501-  21 1.45  22 1.45  26 1.45
   7  0.417  0.583  0.501-  23 1.45  22 1.45  27 1.45
   8  0.417  0.833  0.501-  28 1.45  24 1.45  23 1.45
   9  0.667  0.083  0.501-  29 1.45  28 1.45  25 1.45
  10  0.667  0.333  0.501-  30 1.45  25 1.45  26 1.45
  11  0.667  0.583  0.501-  31 1.45  27 1.45  26 1.45
  12  0.667  0.833  0.501-  32 1.45  28 1.45  27 1.45
  13  0.917  0.083  0.501-  29 1.45  17 1.45  32 1.45
  14  0.917  0.333  0.501-  18 1.45  29 1.45  30 1.45
  15  0.917  0.583  0.501-  19 1.45  31 1.45  30 1.45
  16  0.917  0.833  0.501-  20 1.45  32 1.45  31 1.45
  17  0.083  0.167  0.501-   2 1.45   1 1.45  13 1.45
  18  0.083  0.417  0.501-   3 1.45   2 1.45  14 1.45
  19  0.083  0.667  0.501-   3 1.45   4 1.45  15 1.45
  20  0.083  0.917  0.501-   1 1.45   4 1.45  16 1.45
  21  0.333  0.167  0.501-   6 1.45   5 1.45   1 1.45
  22  0.333  0.417  0.501-   6 1.45   7 1.45   2 1.45
  23  0.333  0.667  0.501-   7 1.45   8 1.45   3 1.45
  24  0.333  0.917  0.501-   8 1.45   5 1.45   4 1.45
  25  0.583  0.167  0.501-  10 1.45   5 1.45   9 1.45
  26  0.583  0.417  0.501-   6 1.45  10 1.45  11 1.45
  27  0.583  0.667  0.501-   7 1.45  11 1.45  12 1.45
  28  0.583  0.917  0.501-   8 1.45  12 1.45   9 1.45
  29  0.833  0.167  0.501-   9 1.45  13 1.45  14 1.45
  30  0.833  0.417  0.501-  10 1.45  15 1.45  14 1.45
  31  0.833  0.667  0.501-  11 1.45  15 1.45  16 1.45
  32  0.833  0.917  0.501-  12 1.45  16 1.45  13 1.45
  33  0.565  0.441  0.660-  36 1.32  37 1.32  38 1.33  34 1.56
  34  0.548  0.368  0.620-  39 1.24  40 1.24  33 1.56
  35  0.470  0.797  0.607-  42 1.16  41 1.16
  36  0.699  0.569  0.661-  33 1.32
  37  0.556  0.342  0.686-  33 1.32
  38  0.451  0.470  0.664-  33 1.33
  39  0.662  0.394  0.601-  34 1.24
  40  0.419  0.287  0.605-  34 1.24
  41  0.601  0.877  0.601-  35 1.16
  42  0.339  0.717  0.612-  35 1.16
 

IMPORTANT INFORMATION: All symmetrisations will be switched off!
NOSYMM: (Re-)initialisation of all symmetry stuff for point group C_1.

 
 
 KPOINTS: K-Point Grid                            

Automatic generation of k-mesh.
Space group operators:
 irot       det(A)        alpha          n_x          n_y          n_z        tau_x        tau_y        tau_z
    1     1.000000     0.000000     1.000000     0.000000     0.000000     0.000000     0.000000     0.000000
 
 Subroutine IBZKPT returns following result:
 ===========================================
 
 Found     24 irreducible k-points:
 
 Following reciprocal coordinates:
            Coordinates               Weight
  0.125000  0.125000  0.000000     16.000000
  0.250000 -0.125000  0.000000     16.000000
  0.125000 -0.250000  0.000000     16.000000
  0.375000  0.125000  0.000000     16.000000
  0.500000 -0.375000  0.000000     16.000000
  0.125000  0.500000  0.000000     16.000000
 -0.125000 -0.375000  0.000000     16.000000
  0.375000  0.500000  0.000000     16.000000
  0.500000 -0.125000  0.000000     16.000000
 -0.375000  0.125000  0.000000     16.000000
 -0.250000  0.375000  0.000000     16.000000
  0.125000  0.250000  0.000000     16.000000
 -0.125000  0.375000  0.000000     16.000000
 -0.375000  0.250000  0.000000     16.000000
 -0.250000 -0.125000  0.000000     16.000000
 -0.125000  0.125000  0.000000     16.000000
  0.000000  0.125000  0.000000     16.000000
  0.125000  0.000000  0.000000     16.000000
  0.375000  0.375000  0.000000     16.000000
 -0.250000 -0.375000  0.000000     16.000000
  0.375000  0.250000  0.000000     16.000000
 -0.375000  0.375000  0.000000     16.000000
  0.000000  0.375000  0.000000     16.000000
  0.375000  0.000000  0.000000     16.000000
 
 Following cartesian coordinates:
            Coordinates               Weight
  0.024879  0.000000  0.000000     16.000000
  0.012439 -0.021546  0.000000     16.000000
 -0.012439 -0.021546  0.000000     16.000000
  0.049758 -0.014364  0.000000     16.000000
  0.012439 -0.050273  0.000000     16.000000
  0.062197  0.021546  0.000000     16.000000
 -0.049758 -0.014364  0.000000     16.000000
  0.087076  0.007182  0.000000     16.000000
  0.037318 -0.035909  0.000000     16.000000
 -0.024879  0.028727  0.000000     16.000000
  0.012439  0.035909  0.000000     16.000000
  0.037318  0.007182  0.000000     16.000000
  0.024879  0.028727  0.000000     16.000000
 -0.012439  0.035909  0.000000     16.000000
 -0.037318  0.007182  0.000000     16.000000
  0.000000  0.014364  0.000000     16.000000
  0.012439  0.007182  0.000000     16.000000
  0.012439 -0.007182  0.000000     16.000000
  0.074636  0.000000  0.000000     16.000000
 -0.062197 -0.007182  0.000000     16.000000
  0.062197 -0.007182  0.000000     16.000000
  0.000000  0.043091  0.000000     16.000000
  0.037318  0.021546  0.000000     16.000000
  0.037318 -0.021546  0.000000     16.000000
 


--------------------------------------------------------------------------------------------------------




 Dimension of arrays:
   k-points           NKPTS =     24   k-points in BZ     NKDIM =     24   number of bands    NBANDS=    192
   number of dos      NEDOS =   1200   number of ions     NIONS =     42
   non local maximal  LDIM  =      4   non local SUM 2l+1 LMDIM =      8
   total plane-waves  NPLWV = ******
   max r-space proj   IRMAX =   6598   max aug-charges    IRDMAX=   8974
   dimension x,y,z NGX =    80 NGY =   80 NGZ =  270
   dimension x,y,z NGXF=   160 NGYF=  160 NGZF=  540
   support grid    NGXF=   160 NGYF=  160 NGZF=  540
   ions per type =              16  16   3   5   2
   NGX,Y,Z   is equivalent  to a cutoff of  13.24, 13.24, 12.78 a.u.
   NGXF,Y,Z  is equivalent  to a cutoff of  26.47, 26.47, 25.57 a.u.

 SYSTEM =  SiC                                     
 POSCAR =  B N C F O                               

 Startparameter for this run:
   NWRITE =      2    write-flag & timer
   PREC   = accura    normal or accurate (medium, high low for compatibility)
   ISTART =      1    job   : 0-new  1-cont  2-samecut
   ICHARG =      0    charge: 1-file 2-atom 10-const
   ISPIN  =      2    spin polarized calculation?
   LNONCOLLINEAR =      F non collinear calculations
   LSORBIT =      F    spin-orbit coupling
   INIWAV =      1    electr: 0-lowe 1-rand  2-diag
   LASPH  =      T    aspherical Exc in radial PAW
   METAGGA=      F    non-selfconsistent MetaGGA calc.

 Electronic Relaxation 1
   ENCUT  =  550.0 eV  40.42 Ry    6.36 a.u.  19.22 19.22 67.15*2*pi/ulx,y,z
   ENINI  =  550.0     initial cutoff
   ENAUG  =  644.9 eV  augmentation charge cutoff
   NELM   =    100;   NELMIN=  2; NELMDL=  0     # of ELM steps 
   EDIFF  = 0.1E-04   stopping-criterion for ELM
   LREAL  =      T    real-space projection
   NLSPLINE    = F    spline interpolate recip. space projectors
   LCOMPAT=      F    compatible to vasp.4.4
   GGA_COMPAT  = T    GGA compatible to vasp.4.4-vasp.4.6
   LMAXPAW     = -100 max onsite density
   LMAXMIX     =    2 max onsite mixed and CHGCAR
   VOSKOWN=      0    Vosko Wilk Nusair interpolation
   ROPT   =   -0.00025  -0.00025  -0.00025  -0.00025
   ROPT   =   -0.00025
 Ionic relaxation
   EDIFFG = -.2E-01   stopping-criterion for IOM
   NSW    =    500    number of steps for IOM
   NBLOCK =      1;   KBLOCK =    500    inner block; outer block 
   IBRION =      2    ionic relax: 0-MD 1-quasi-New 2-CG
   NFREE  =      1    steps in history (QN), initial steepest desc. (CG)
   ISIF   =      2    stress and relaxation
   IWAVPR =     11    prediction:  0-non 1-charg 2-wave 3-comb
   ISYM   =      0    0-nonsym 1-usesym 2-fastsym
   LCORR  =      T    Harris-Foulkes like correction to forces

   POTIM  = 0.5000    time-step for ionic-motion
   TEIN   =    0.0    initial temperature
   TEBEG  =    0.0;   TEEND  =   0.0 temperature during run
   SMASS  =  -3.00    Nose mass-parameter (am)
   estimated Nose-frequenzy (Omega)   =  0.10E-29 period in steps =****** mass=  -0.231E-26a.u.
   SCALEE = 1.0000    scale energy and forces
   NPACO  =    256;   APACO  = 16.0  distance and # of slots for P.C.
   PSTRESS=    0.0 pullay stress

  Mass of Ions in am
   POMASS =  10.81 14.00 12.01 19.00 16.00
  Ionic Valenz
   ZVAL   =   3.00  5.00  4.00  7.00  6.00
  Atomic Wigner-Seitz radii
   RWIGS  =  -1.00 -1.00 -1.00 -1.00 -1.00
  virtual crystal weights 
   VCA    =   1.00  1.00  1.00  1.00  1.00
   NELECT =     185.8000    total number of electrons
   NUPDOWN=      -1.0000    fix difference up-down

 DOS related values:
   EMIN   =  10.00;   EMAX   =-10.00  energy-range for DOS
   EFERMI =   0.00
   ISMEAR =     0;   SIGMA  =   0.05  broadening in eV -4-tet -1-fermi 0-gaus

 Electronic relaxation 2 (details)
   IALGO  =     68    algorithm
   LDIAG  =      T    sub-space diagonalisation (order eigenvalues)
   LSUBROT=      F    optimize rotation matrix (better conditioning)
   TURBO    =      0    0=normal 1=particle mesh
   IRESTART =      0    0=no restart 2=restart with 2 vectors
   NREBOOT  =      0    no. of reboots
   NMIN     =      0    reboot dimension
   EREF     =   0.00    reference energy to select bands
   IMIX   =      4    mixing-type and parameters
     AMIX     =   0.40;   BMIX     =  1.00
     AMIX_MAG =   1.60;   BMIX_MAG =  1.00
     AMIN     =   0.10
     WC   =   100.;   INIMIX=   1;  MIXPRE=   1;  MAXMIX= -45

 Intra band minimization:
   WEIMIN = 0.0010     energy-eigenvalue tresh-hold
   EBREAK =  0.13E-07  absolut break condition
   DEPER  =   0.30     relativ break condition  

   TIME   =   0.40     timestep for ELM

  volume/ion in A,a.u.               =      73.11       493.39
  Fermi-wavevector in a.u.,A,eV,Ry     =   0.642701  1.214528  5.620081  0.413064
  Thomas-Fermi vector in A             =   1.709457
 
 Write flags
   LWAVE        =      T    write WAVECAR
   LDOWNSAMPLE  =      F    k-point downsampling of WAVECAR
   LCHARG       =      F    write CHGCAR
   LVTOT        =      F    write LOCPOT, total local potential
   LVHAR        =      T    write LOCPOT, Hartree potential only
   LELF         =      F    write electronic localiz. function (ELF)
   LORBIT       =     11    0 simple, 1 ext, 2 COOP (PROOUT), +10 PAW based schemes


 Dipole corrections
   LMONO  =      F    monopole corrections only (constant potential shift)
   LDIPOL =      F    correct potential (dipole corrections)
   IDIPOL =      0    1-x, 2-y, 3-z, 4-all directions 
   EPSILON=  1.0000000 bulk dielectric constant

 Exchange correlation treatment:
   GGA     =    --    GGA type
   LEXCH   =     8    internal setting for exchange type
   VOSKOWN=      0    Vosko Wilk Nusair interpolation
   LHFCALC =     F    Hartree Fock is set to
   LHFONE  =     F    Hartree Fock one center treatment
   AEXX    =    0.0000 exact exchange contribution

 Linear response parameters
   LEPSILON=     F    determine dielectric tensor
   LRPA    =     F    only Hartree local field effects (RPA)
   LNABLA  =     F    use nabla operator in PAW spheres
   LVEL    =     F    velocity operator in full k-point grid
   LINTERFAST=   F  fast interpolation
   KINTER  =     0    interpolate to denser k-point grid
   CSHIFT  =0.1000    complex shift for real part using Kramers Kronig
   OMEGAMAX=  -1.0    maximum frequency
   DEG_THRESHOLD= 0.2000000E-02 threshold for treating states as degnerate
   RTIME   =   -0.100 relaxation time in fs
  (WPLASMAI=    0.000 imaginary part of plasma frequency in eV, 0.658/RTIME)
   DFIELD  = 0.0000000 0.0000000 0.0000000 field for delta impulse in time
 
 Orbital magnetization related:
   ORBITALMAG=     F  switch on orbital magnetization
   LCHIMAG   =     F  perturbation theory with respect to B field
   DQ        =  0.001000  dq finite difference perturbation B field
   LLRAUG    =     F  two centre corrections for induced B field

 Solvation model:
   LSOL    =     T         switch on solvation model
   EB_K    = 78.400000     relative permittivity of the bulk solvent
   SIGMA_K =  0.600000     width of the dielectric cavity
   NC_K    =  0.002500     cutoff charge density
   TAU     =  0.000000     cavity surface tension
   LAMBDA_D_K    =  3.040000     Debye length in Angstroms
   LRHOB     =     F     write boundcharge  density
   LRHOION     =     F     write ioniccharge density



--------------------------------------------------------------------------------------------------------


 conjugate gradient relaxation of ions
   using selective dynamics as specified on POSCAR
 charge density and potential will be updated during run
 spin polarized calculation
 RMM-DIIS sequential band-by-band and
  variant of blocked Davidson during initial phase
 perform sub-space diagonalisation
    before iterative eigenvector-optimisation
 modified Broyden-mixing scheme, WC =      100.0
 initial mixing is a Kerker type mixing with AMIX =  0.4000 and BMIX =      1.0000
 Hartree-type preconditioning will be used
 using additional bands           99
 real space projection scheme for non local part
 use partial core corrections
 calculate Harris-corrections to forces 
   (improved forces if not selfconsistent)
 use gradient corrections 
 use of overlap-Matrix (Vanderbilt PP)
 Gauss-broadening in eV      SIGMA  =   0.05


--------------------------------------------------------------------------------------------------------


  energy-cutoff  :      550.00
  volume of cell :     3070.74
      direct lattice vectors                 reciprocal lattice vectors
     5.024366704 -8.702497373  0.000000000     0.099515029 -0.057454772  0.000000000
     5.024366704  8.702497373  0.000000000     0.099515029  0.057454772  0.000000000
     0.000000000  0.000000000 35.114664386     0.000000000  0.000000000  0.028478131

  length of vectors
    10.048767154 10.048767154 35.114664386     0.114909929  0.114909929  0.028478131


 
 old parameters found on file WAVECAR:
  energy-cutoff  :      550.00
  volume of cell :     3070.74
      direct lattice vectors                 reciprocal lattice vectors
     5.024366704 -8.702497373  0.000000000     0.099515029 -0.057454772  0.000000000
     5.024366704  8.702497373  0.000000000     0.099515029  0.057454772  0.000000000
     0.000000000  0.000000000 35.114664386     0.000000000  0.000000000  0.028478131

  length of vectors

 
 k-points in units of 2pi/SCALE and weight: K-Point Grid                            
   0.02487876  0.00000000  0.00000000       0.042
   0.01243938 -0.02154554  0.00000000       0.042
  -0.01243938 -0.02154554  0.00000000       0.042
   0.04975751 -0.01436369  0.00000000       0.042
   0.01243938 -0.05027293  0.00000000       0.042
   0.06219689  0.02154554  0.00000000       0.042
  -0.04975751 -0.01436369  0.00000000       0.042
   0.08707565  0.00718185  0.00000000       0.042
   0.03731814 -0.03590923  0.00000000       0.042
  -0.02487876  0.02872739  0.00000000       0.042
   0.01243938  0.03590923  0.00000000       0.042
   0.03731814  0.00718185  0.00000000       0.042
   0.02487876  0.02872739  0.00000000       0.042
  -0.01243938  0.03590923  0.00000000       0.042
  -0.03731814  0.00718185  0.00000000       0.042
   0.00000000  0.01436369  0.00000000       0.042
   0.01243938  0.00718185  0.00000000       0.042
   0.01243938 -0.00718185  0.00000000       0.042
   0.07463627  0.00000000  0.00000000       0.042
  -0.06219689 -0.00718185  0.00000000       0.042
   0.06219689 -0.00718185  0.00000000       0.042
   0.00000000  0.04309108  0.00000000       0.042
   0.03731814  0.02154554  0.00000000       0.042
   0.03731814 -0.02154554  0.00000000       0.042
 
 k-points in reciprocal lattice and weights: K-Point Grid                            
   0.12500000  0.12500000  0.00000000       0.042
   0.25000000 -0.12500000  0.00000000       0.042
   0.12500000 -0.25000000  0.00000000       0.042
   0.37500000  0.12500000  0.00000000       0.042
   0.50000000 -0.37500000  0.00000000       0.042
   0.12500000  0.50000000  0.00000000       0.042
  -0.12500000 -0.37500000  0.00000000       0.042
   0.37500000  0.50000000  0.00000000       0.042
   0.50000000 -0.12500000  0.00000000       0.042
  -0.37500000  0.12500000  0.00000000       0.042
  -0.25000000  0.37500000  0.00000000       0.042
   0.12500000  0.25000000  0.00000000       0.042
  -0.12500000  0.37500000  0.00000000       0.042
  -0.37500000  0.25000000  0.00000000       0.042
  -0.25000000 -0.12500000  0.00000000       0.042
  -0.12500000  0.12500000  0.00000000       0.042
   0.00000000  0.12500000  0.00000000       0.042
   0.12500000  0.00000000  0.00000000       0.042
   0.37500000  0.37500000  0.00000000       0.042
  -0.25000000 -0.37500000  0.00000000       0.042
   0.37500000  0.25000000  0.00000000       0.042
  -0.37500000  0.37500000  0.00000000       0.042
   0.00000000  0.37500000  0.00000000       0.042
   0.37500000  0.00000000  0.00000000       0.042
 
 position of ions in fractional coordinates (direct lattice) 
   0.16654124  0.08320607  0.50123837
   0.16653172  0.33323071  0.50126658
   0.16654153  0.58320872  0.50127363
   0.16654846  0.83324695  0.50123162
   0.41657030  0.08323689  0.50108894
   0.41655361  0.33322700  0.50101415
   0.41656956  0.58323823  0.50110830
   0.41660941  0.83329469  0.50097381
   0.66660435  0.08322099  0.50112133
   0.66662565  0.33324089  0.50105427
   0.66663310  0.58327182  0.50113464
   0.66661600  0.83331192  0.50112729
   0.91658360  0.08325518  0.50131897
   0.91661135  0.33324063  0.50130733
   0.91660220  0.58325528  0.50126386
   0.91660864  0.83327208  0.50128550
   0.08325243  0.16657693  0.50134255
   0.08325467  0.41658400  0.50134582
   0.08326374  0.66658756  0.50132777
   0.08324648  0.91657596  0.50129610
   0.33325331  0.16659279  0.50114962
   0.33325288  0.41657546  0.50116102
   0.33327307  0.66660342  0.50119108
   0.33324735  0.91657733  0.50112810
   0.58325748  0.16657886  0.50111822
   0.58325043  0.41656506  0.50111404
   0.58326026  0.66659022  0.50119562
   0.58322775  0.91656774  0.50099706
   0.83324516  0.16657575  0.50129971
   0.83325117  0.41657013  0.50125838
   0.83324879  0.66657982  0.50125731
   0.83324455  0.91657184  0.50131424
   0.56456523  0.44092352  0.65967915
   0.54754279  0.36830172  0.61956695
   0.47005069  0.79739028  0.60664117
   0.69946056  0.56897781  0.66125576
   0.55647872  0.34233709  0.68588326
   0.45088457  0.47035607  0.66423304
   0.66202453  0.39353069  0.60075528
   0.41894627  0.28684420  0.60527289
   0.60099007  0.87711839  0.60131233
   0.33896745  0.71722013  0.61163762
 
 position of ions in cartesian coordinates  (Angst):
   1.25482206 -0.72522411 17.60081704
   2.51098970  1.45069757 17.60180774
   3.76702020  3.62604511 17.60205536
   5.02333879  5.80194182 17.60058020
   2.51121462 -2.90083317 17.59557011
   3.76717272 -0.72514966 17.59294358
   5.02340098  1.45043364 17.59624993
   6.27997655  3.62620254 17.59152706
   3.76739745 -5.07689219 17.59670747
   5.02369617 -2.90127997 17.59435270
   6.27998068 -0.72545130 17.59717486
   7.53618788  1.45067078 17.59691665
   5.02355670 -7.25203840 17.60364743
   6.27971470 -5.07678214 17.60323867
   7.53583396 -2.90095069 17.60171224
   8.79204241 -0.72523618 17.60247208
   1.25523435  0.72513122 17.60447534
   2.51137275  2.90079765 17.60459019
   3.76752789  5.07637402 17.60395650
   5.02347458  7.25204766 17.60284448
   2.51141010 -1.45036274 17.59770081
   3.76741253  0.72511450 17.59810101
   5.02374614  2.90080654 17.59915650
   6.27957752  5.07642757 17.59694487
   3.76745275 -3.62614459 17.59659824
   5.02343967 -1.45057898 17.59645122
   6.27970711  0.72517873 17.59931594
   7.53552253  2.90089037 17.59234378
   5.02346688 -5.80168884 17.60297123
   6.27956051 -3.62616566 17.60151992
   7.53568894 -1.45043634 17.60148209
   8.79171917  0.72515553 17.60348136
   5.05194418 -1.07599170 23.16441203
   4.60153869 -1.55984492 21.75588540
   6.36808820  2.84867187 21.30200104
   6.37309951 -1.13552582 23.21977406
   4.51598019 -1.86356695 24.08456038
   4.62865078  0.16945067 23.32432038
   5.30349653 -2.33656695 21.09532001
   3.54615012 -1.14961789 21.25395437
   7.42655894  2.40300601 21.11488077
   5.30667372  3.29174299 21.47744989
 


--------------------------------------------------------------------------------------------------------


 k-point  1 :   0.1250 0.1250 0.0000  plane waves:   89921
 k-point  2 :   0.2500-0.1250 0.0000  plane waves:   89921
 k-point  3 :   0.1250-0.2500 0.0000  plane waves:   89921
 k-point  4 :   0.3750 0.1250 0.0000  plane waves:   89970
 k-point  5 :   0.5000-0.3750 0.0000  plane waves:   89970
 k-point  6 :   0.1250 0.5000 0.0000  plane waves:   89970
 k-point  7 :  -0.1250-0.3750 0.0000  plane waves:   89970
 k-point  8 :   0.3750 0.5000 0.0000  plane waves:   89970
 k-point  9 :   0.5000-0.1250 0.0000  plane waves:   89970
 k-point 10 :  -0.3750 0.1250 0.0000  plane waves:   89943
 k-point 11 :  -0.2500 0.3750 0.0000  plane waves:   89943
 k-point 12 :   0.1250 0.2500 0.0000  plane waves:   89943
 k-point 13 :  -0.1250 0.3750 0.0000  plane waves:   89943
 k-point 14 :  -0.3750 0.2500 0.0000  plane waves:   89943
 k-point 15 :  -0.2500-0.1250 0.0000  plane waves:   89943
 k-point 16 :  -0.1250 0.1250 0.0000  plane waves:   89893
 k-point 17 :   0.0000 0.1250 0.0000  plane waves:   89893
 k-point 18 :   0.1250 0.0000 0.0000  plane waves:   89893
 k-point 19 :   0.3750 0.3750 0.0000  plane waves:   89957
 k-point 20 :  -0.2500-0.3750 0.0000  plane waves:   89957
 k-point 21 :   0.3750 0.2500 0.0000  plane waves:   89957
 k-point 22 :  -0.3750 0.3750 0.0000  plane waves:   89980
 k-point 23 :   0.0000 0.3750 0.0000  plane waves:   89980
 k-point 24 :   0.3750 0.0000 0.0000  plane waves:   89980

 maximum and minimum number of plane-waves per node :     89980    89893

 maximum number of plane-waves:     89980
 maximum index in each direction: 
   IXMAX=   19   IYMAX=   19   IZMAX=   67
   IXMIN=  -19   IYMIN=  -19   IZMIN=  -67


 serial   3D FFT for wavefunctions
 parallel 3D FFT for charge:
    minimum data exchange during FFTs selected (reduces bandwidth)


 total amount of memory used by VASP MPI-rank0   470236. kBytes
=======================================================================

   base      :      30000. kBytes
   nonlr-proj:      18668. kBytes
   fftplans  :      12568. kBytes
   grid      :     269839. kBytes
   one-center:        258. kBytes
   wavefun   :     138903. kBytes
 
     INWAV:  cpu time   64.9231: real time  104.4711
 Broyden mixing: mesh for mixing (old mesh)
   NGX = 39   NGY = 39   NGZ =135
  (NGX  =160   NGY  =160   NGZ  =540)
  gives a total of 205335 points

 charge density for first step will be calculated from the start-wavefunctions


--------------------------------------------------------------------------------------------------------


 Maximum index for non-local projection operator         6358
 Maximum index for augmentation-charges          401 (set IRDMAX)


--------------------------------------------------------------------------------------------------------


 initial charge from wavefunction
 First call to EWALD:  gamma=   0.122
 Maximum number of real-space cells 4x 4x 1
 Maximum number of reciprocal cells 2x 2x 6

    FEWALD:  cpu time    0.0078: real time    0.0040


--------------------------------------- Iteration      1(   1)  ---------------------------------------


    POTLOK:  cpu time    7.8532: real time    7.7381
    SETDIJ:  cpu time    0.9542: real time    0.5468
     EDDAV:  cpu time   72.1181: real time   41.0595
       DOS:  cpu time    0.0604: real time    0.0304
    CHARGE:  cpu time    6.9666: real time    5.8559
    MIXING:  cpu time    0.0996: real time    0.0500
    --------------------------------------------
      LOOP:  cpu time   88.0522: real time   55.2808

 eigenvalue-minimisations  : 21312
 total energy-change (2. order) :-0.3798573E+03  (-0.2266383E-05)
 number of electron     185.8000023 magnetization       0.0000001
 augmentation part       11.5095346 magnetization       0.0000003

 Broyden mixing:
  rms(total) = 0.28944E-03    rms(broyden)= 0.28930E-03
  rms(prec ) = 0.30097E-03
  weight for this iteration     100.00

 Free energy of the ion-electron system (eV)
  ---------------------------------------------------
  alpha Z        PSCENC =        57.55240194
  Ewald energy   TEWEN  =     64177.46426850
  -Hartree energ DENC   =    -71961.84645711
  -exchange      EXHF   =         0.00000000
  -V(xc)+E(xc)   XCENC  =       892.85935718
  PAW double counting   =     21215.56172465   -21311.68820101
  entropy T*S    EENTRO =        -0.00432219
  eigenvalues    EBANDS =     -2894.86301533
  atomic energy  EATOM  =      9975.55785330
  Solvation  Ediel_sol  =      -530.45095901
  ---------------------------------------------------
  free energy    TOTEN  =      -379.85734909 eV

  energy without entropy =     -379.85302689  energy(sigma->0) =     -379.85518799


--------------------------------------------------------------------------------------------------------




--------------------------------------- Iteration      1(   2)  ---------------------------------------


    POTLOK:  cpu time    5.2511: real time    5.1750
    SETDIJ:  cpu time    0.5995: real time    0.3970
    EDDIAG:  cpu time   12.8196: real time    7.3654
  RMM-DIIS:  cpu time   61.9014: real time   37.3548
    ORTHCH:  cpu time    0.6791: real time    0.3428
       DOS:  cpu time    0.0055: real time    0.0027
    --------------------------------------------
      LOOP:  cpu time   81.2561: real time   50.6376

 eigenvalue-minimisations  : 13940
 total energy-change (2. order) : 0.2361776E-06  (-0.2492991E-06)
 number of electron     185.8000023 magnetization       0.0000001
 augmentation part       11.5095346 magnetization       0.0000003

 Free energy of the ion-electron system (eV)
  ---------------------------------------------------
  alpha Z        PSCENC =        57.55240194
  Ewald energy   TEWEN  =     64177.46426850
  -Hartree energ DENC   =    -71961.84195817
  -exchange      EXHF   =         0.00000000
  -V(xc)+E(xc)   XCENC  =       892.85889954
  PAW double counting   =     21215.56352402   -21311.68996031
  entropy T*S    EENTRO =        -0.00432220
  eigenvalues    EBANDS =     -2894.87057605
  atomic energy  EATOM  =      9975.55785330
  Solvation  Ediel_sol  =      -530.44747945
  ---------------------------------------------------
  free energy    TOTEN  =      -379.85734885 eV

  energy without entropy =     -379.85302666  energy(sigma->0) =     -379.85518776


--------------------------------------------------------------------------------------------------------




 average (electrostatic) potential at core
  the test charge radii are     0.7672  0.7089  0.6991  0.7167  0.7215
  (the norm of the test charge is              1.0000)
       1 -38.7916       2 -38.7929       3 -38.7943       4 -38.7911       5 -38.7982
       6 -38.8047       7 -38.8034       8 -38.7987       9 -38.7942      10 -38.8023
      11 -38.8048      12 -38.7962      13 -38.7873      14 -38.7909      15 -38.7929
      16 -38.7907      17 -76.3552      18 -76.3590      19 -76.3577      20 -76.3572
      21 -76.3686      22 -76.3704      23 -76.3732      24 -76.3655      25 -76.3694
      26 -76.3831      27 -76.3750      28 -76.3674      29 -76.3567      30 -76.3639
      31 -76.3637      32 -76.3577      33 -69.0522      34 -69.9828      35 -66.0382
      36 -92.8641      37 -92.8478      38 -92.8640      39 -95.2109      40 -95.1989
      41 -86.6572      42 -86.6540
 
 
 
 E-fermi :  -6.3902     XC(G=0):  -1.5949     alpha+bet : -1.2808


 spin component 1

 k-point     1 :       0.1250    0.1250    0.0000
  band No.  band energies     occupation 
      1     -38.8253      1.00000
      2     -37.0932      1.00000
      3     -36.7442      1.00000
      4     -34.3985      1.00000
      5     -34.3664      1.00000
      6     -30.9626      1.00000
      7     -29.9628      1.00000
      8     -24.9682      1.00000
      9     -24.2134      1.00000
     10     -24.2111      1.00000
     11     -23.7854      1.00000
     12     -23.7826      1.00000
     13     -23.3832      1.00000
     14     -23.3810      1.00000
     15     -22.5341      1.00000
     16     -22.2835      1.00000
     17     -22.2412      1.00000
     18     -22.2397      1.00000
     19     -21.9992      1.00000
     20     -21.9963      1.00000
     21     -21.8475      1.00000
     22     -21.7717      1.00000
     23     -21.7701      1.00000
     24     -21.5799      1.00000
     25     -19.8405      1.00000
     26     -18.5772      1.00000
     27     -18.1842      1.00000
     28     -17.2033      1.00000
     29     -16.7939      1.00000
     30     -16.4665      1.00000
     31     -15.5319      1.00000
     32     -15.3730      1.00000
     33     -15.3703      1.00000
     34     -14.9170      1.00000
     35     -14.6387      1.00000
     36     -14.6380      1.00000
     37     -14.5716      1.00000
     38     -14.5327      1.00000
     39     -14.5304      1.00000
     40     -14.1598      1.00000
     41     -14.1584      1.00000
     42     -14.0559      1.00000
     43     -13.6214      1.00000
     44     -13.3647      1.00000
     45     -13.2041      1.00000
     46     -13.1673      1.00000
     47     -13.1612      1.00000
     48     -13.1282      1.00000
     49     -13.1209      1.00000
     50     -12.7377      1.00000
     51     -12.7368      1.00000
     52     -12.5525      1.00000
     53     -12.5520      1.00000
     54     -12.2869      1.00000
     55     -12.2569      1.00000
     56     -11.8809      1.00000
     57     -11.8794      1.00000
     58     -11.7653      1.00000
     59     -11.7120      1.00000
     60     -11.7068      1.00000
     61     -11.7052      1.00000
     62     -11.6346      1.00000
     63     -11.5982      1.00000
     64     -10.8666      1.00000
     65     -10.6450      1.00000
     66     -10.6442      1.00000
     67     -10.6200      1.00000
     68     -10.6191      1.00000
     69     -10.5883      1.00000
     70     -10.5853      1.00000
     71     -10.0053      1.00000
     72     -10.0032      1.00000
     73      -9.8529      1.00000
     74      -9.8521      1.00000
     75      -9.6153      1.00000
     76      -9.6117      1.00000
     77      -9.5573      1.00000
     78      -9.5207      1.00000
     79      -9.4479      1.00000
     80      -9.4076      1.00000
     81      -9.0363      1.00000
     82      -9.0352      1.00000
     83      -8.2504      1.00000
     84      -7.9928      1.00000
     85      -7.8573      1.00000
     86      -7.8222      1.00000
     87      -7.8191      1.00000
     88      -7.4363      1.00000
     89      -7.4350      1.00000
     90      -7.2018      1.00000
     91      -7.1078      1.00000
     92      -7.1049      1.00000
     93      -6.8053      1.00000
     94      -5.5061      0.00000
     95      -0.9926      0.00000
     96      -0.9366      0.00000
     97      -0.7120      0.00000
     98      -0.6891      0.00000
     99      -0.6390      0.00000
    100      -0.4287      0.00000
    101      -0.4141      0.00000
    102      -0.3311      0.00000
    103      -0.1235      0.00000
    104       0.0342      0.00000
    105       0.0533      0.00000
    106       0.0927      0.00000
    107       0.1615      0.00000
    108       0.1900      0.00000
    109       0.2812      0.00000
    110       0.3397      0.00000
    111       0.3521      0.00000
    112       0.5805      0.00000
    113       0.6803      0.00000
    114       0.7821      0.00000
    115       0.8981      0.00000
    116       0.9044      0.00000
    117       0.9738      0.00000
    118       1.0259      0.00000
    119       1.1079      0.00000
    120       1.1181      0.00000
    121       1.1353      0.00000
    122       1.2625      0.00000
    123       1.3344      0.00000
    124       1.4345      0.00000
    125       1.4494      0.00000
    126       1.4808      0.00000
    127       1.6130      0.00000
    128       1.6506      0.00000
    129       1.6961      0.00000
    130       1.7320      0.00000
    131       1.8112      0.00000
    132       1.8472      0.00000
    133       1.8628      0.00000
    134       1.8684      0.00000
    135       1.8783      0.00000
    136       1.9147      0.00000
    137       1.9349      0.00000
    138       2.0122      0.00000
    139       2.0423      0.00000
    140       2.1096      0.00000
    141       2.1354      0.00000
    142       2.1688      0.00000
    143       2.1926      0.00000
    144       2.2719      0.00000
    145       2.5038      0.00000
    146       2.5513      0.00000
    147       2.5783      0.00000
    148       2.5881      0.00000
    149       2.6423      0.00000
    150       2.6620      0.00000
    151       2.7143      0.00000
    152       2.7825      0.00000
    153       2.7921      0.00000
    154       2.8332      0.00000
    155       2.8537      0.00000
    156       2.8856      0.00000
    157       2.9078      0.00000
    158       2.9611      0.00000
    159       3.0246      0.00000
    160       3.0369      0.00000
    161       3.0849      0.00000
    162       3.1376      0.00000
    163       3.2156      0.00000
    164       3.2579      0.00000
    165       3.2947      0.00000
    166       3.4393      0.00000
    167       3.5093      0.00000
    168       3.5965      0.00000
    169       3.6264      0.00000
    170       3.6693      0.00000
    171       3.7089      0.00000
    172       3.7685      0.00000
    173       3.8035      0.00000
    174       3.8286      0.00000
    175       3.9721      0.00000
    176       3.9896      0.00000
    177       4.0167      0.00000
    178       4.0292      0.00000
    179       4.0433      0.00000
    180       4.1102      0.00000
    181       4.1509      0.00000
    182       4.2049      0.00000
    183       4.2183      0.00000
    184       4.2663      0.00000
    185       4.3274      0.00000
    186       4.3423      0.00000
    187       4.3618      0.00000
    188       4.4225      0.00000
    189       4.4573      0.00000
    190       4.5014      0.00000
    191       4.5228      0.00000
    192       4.5752      0.00000

 k-point     2 :       0.2500   -0.1250    0.0000
  band No.  band energies     occupation 
      1     -38.8253      1.00000
      2     -37.0932      1.00000
      3     -36.7442      1.00000
      4     -34.3985      1.00000
      5     -34.3664      1.00000
      6     -30.9626      1.00000
      7     -29.9628      1.00000
      8     -24.9682      1.00000
      9     -24.2143      1.00000
     10     -24.2101      1.00000
     11     -23.7850      1.00000
     12     -23.7830      1.00000
     13     -23.3841      1.00000
     14     -23.3801      1.00000
     15     -22.5341      1.00000
     16     -22.2835      1.00000
     17     -22.2419      1.00000
     18     -22.2388      1.00000
     19     -21.9988      1.00000
     20     -21.9968      1.00000
     21     -21.8474      1.00000
     22     -21.7725      1.00000
     23     -21.7693      1.00000
     24     -21.5799      1.00000
     25     -19.8405      1.00000
     26     -18.5772      1.00000
     27     -18.1843      1.00000
     28     -17.2033      1.00000
     29     -16.7939      1.00000
     30     -16.4665      1.00000
     31     -15.5320      1.00000
     32     -15.3727      1.00000
     33     -15.3704      1.00000
     34     -14.9170      1.00000
     35     -14.6388      1.00000
     36     -14.6380      1.00000
     37     -14.5716      1.00000
     38     -14.5327      1.00000
     39     -14.5302      1.00000
     40     -14.1603      1.00000
     41     -14.1579      1.00000
     42     -14.0561      1.00000
     43     -13.6214      1.00000
     44     -13.3647      1.00000
     45     -13.2041      1.00000
     46     -13.1673      1.00000
     47     -13.1612      1.00000
     48     -13.1285      1.00000
     49     -13.1205      1.00000
     50     -12.7381      1.00000
     51     -12.7365      1.00000
     52     -12.5527      1.00000
     53     -12.5518      1.00000
     54     -12.2869      1.00000
     55     -12.2569      1.00000
     56     -11.8817      1.00000
     57     -11.8788      1.00000
     58     -11.7653      1.00000
     59     -11.7122      1.00000
     60     -11.7062      1.00000
     61     -11.7053      1.00000
     62     -11.6346      1.00000
     63     -11.5982      1.00000
     64     -10.8668      1.00000
     65     -10.6448      1.00000
     66     -10.6442      1.00000
     67     -10.6203      1.00000
     68     -10.6189      1.00000
     69     -10.5894      1.00000
     70     -10.5839      1.00000
     71     -10.0080      1.00000
     72     -10.0029      1.00000
     73      -9.8532      1.00000
     74      -9.8516      1.00000
     75      -9.6154      1.00000
     76      -9.6119      1.00000
     77      -9.5503      1.00000
     78      -9.5204      1.00000
     79      -9.4483      1.00000
     80      -9.4126      1.00000
     81      -9.0367      1.00000
     82      -9.0347      1.00000
     83      -8.2507      1.00000
     84      -7.9930      1.00000
     85      -7.8572      1.00000
     86      -7.8230      1.00000
     87      -7.8176      1.00000
     88      -7.4366      1.00000
     89      -7.4353      1.00000
     90      -7.2012      1.00000
     91      -7.1088      1.00000
     92      -7.1041      1.00000
     93      -6.8054      1.00000
     94      -5.5061      0.00000
     95      -0.9930      0.00000
     96      -0.9393      0.00000
     97      -0.7086      0.00000
     98      -0.6895      0.00000
     99      -0.6377      0.00000
    100      -0.4302      0.00000
    101      -0.4133      0.00000
    102      -0.3308      0.00000
    103      -0.1237      0.00000
    104       0.0288      0.00000
    105       0.0490      0.00000
    106       0.0910      0.00000
    107       0.1736      0.00000
    108       0.1903      0.00000
    109       0.2848      0.00000
    110       0.3392      0.00000
    111       0.3562      0.00000
    112       0.5852      0.00000
    113       0.6785      0.00000
    114       0.7746      0.00000
    115       0.8974      0.00000
    116       0.9031      0.00000
    117       0.9483      0.00000
    118       1.0425      0.00000
    119       1.1099      0.00000
    120       1.1215      0.00000
    121       1.1259      0.00000
    122       1.2685      0.00000
    123       1.3332      0.00000
    124       1.4358      0.00000
    125       1.4489      0.00000
    126       1.4766      0.00000
    127       1.6208      0.00000
    128       1.6461      0.00000
    129       1.6987      0.00000
    130       1.7233      0.00000
    131       1.8151      0.00000
    132       1.8481      0.00000
    133       1.8623      0.00000
    134       1.8704      0.00000
    135       1.8769      0.00000
    136       1.9116      0.00000
    137       1.9405      0.00000
    138       2.0105      0.00000
    139       2.0451      0.00000
    140       2.1120      0.00000
    141       2.1394      0.00000
    142       2.1651      0.00000
    143       2.1922      0.00000
    144       2.2738      0.00000
    145       2.5046      0.00000
    146       2.5514      0.00000
    147       2.5767      0.00000
    148       2.5886      0.00000
    149       2.6478      0.00000
    150       2.6572      0.00000
    151       2.7130      0.00000
    152       2.7866      0.00000
    153       2.7904      0.00000
    154       2.8293      0.00000
    155       2.8547      0.00000
    156       2.8870      0.00000
    157       2.9084      0.00000
    158       2.9608      0.00000
    159       3.0251      0.00000
    160       3.0412      0.00000
    161       3.0760      0.00000
    162       3.1311      0.00000
    163       3.2028      0.00000
    164       3.2609      0.00000
    165       3.3180      0.00000
    166       3.4332      0.00000
    167       3.5387      0.00000
    168       3.5804      0.00000
    169       3.6228      0.00000
    170       3.6679      0.00000
    171       3.7063      0.00000
    172       3.7650      0.00000
    173       3.8079      0.00000
    174       3.8313      0.00000
    175       3.9491      0.00000
    176       3.9910      0.00000
    177       4.0092      0.00000
    178       4.0243      0.00000
    179       4.0549      0.00000
    180       4.1113      0.00000
    181       4.1491      0.00000
    182       4.2055      0.00000
    183       4.2426      0.00000
    184       4.2740      0.00000
    185       4.3387      0.00000
    186       4.3493      0.00000
    187       4.3783      0.00000
    188       4.4212      0.00000
    189       4.4392      0.00000
    190       4.4997      0.00000
    191       4.5213      0.00000
    192       4.5690      0.00000

 k-point     3 :       0.1250   -0.2500    0.0000
  band No.  band energies     occupation 
      1     -38.8253      1.00000
      2     -37.0932      1.00000
      3     -36.7442      1.00000
      4     -34.3985      1.00000
      5     -34.3664      1.00000
      6     -30.9626      1.00000
      7     -29.9628      1.00000
      8     -24.9682      1.00000
      9     -24.2169      1.00000
     10     -24.2076      1.00000
     11     -23.7848      1.00000
     12     -23.7832      1.00000
     13     -23.3867      1.00000
     14     -23.3777      1.00000
     15     -22.5342      1.00000
     16     -22.2833      1.00000
     17     -22.2433      1.00000
     18     -22.2375      1.00000
     19     -21.9984      1.00000
     20     -21.9972      1.00000
     21     -21.8473      1.00000
     22     -21.7740      1.00000
     23     -21.7680      1.00000
     24     -21.5799      1.00000
     25     -19.8405      1.00000
     26     -18.5772      1.00000
     27     -18.1843      1.00000
     28     -17.2033      1.00000
     29     -16.7939      1.00000
     30     -16.4665      1.00000
     31     -15.5318      1.00000
     32     -15.3722      1.00000
     33     -15.3712      1.00000
     34     -14.9171      1.00000
     35     -14.6392      1.00000
     36     -14.6376      1.00000
     37     -14.5707      1.00000
     38     -14.5331      1.00000
     39     -14.5310      1.00000
     40     -14.1619      1.00000
     41     -14.1562      1.00000
     42     -14.0558      1.00000
     43     -13.6215      1.00000
     44     -13.3647      1.00000
     45     -13.2040      1.00000
     46     -13.1673      1.00000
     47     -13.1611      1.00000
     48     -13.1285      1.00000
     49     -13.1208      1.00000
     50     -12.7388      1.00000
     51     -12.7359      1.00000
     52     -12.5530      1.00000
     53     -12.5514      1.00000
     54     -12.2869      1.00000
     55     -12.2569      1.00000
     56     -11.8837      1.00000
     57     -11.8769      1.00000
     58     -11.7653      1.00000
     59     -11.7124      1.00000
     60     -11.7062      1.00000
     61     -11.7053      1.00000
     62     -11.6346      1.00000
     63     -11.5979      1.00000
     64     -10.8669      1.00000
     65     -10.6447      1.00000
     66     -10.6441      1.00000
     67     -10.6217      1.00000
     68     -10.6178      1.00000
     69     -10.5913      1.00000
     70     -10.5812      1.00000
     71     -10.0121      1.00000
     72     -10.0034      1.00000
     73      -9.8540      1.00000
     74      -9.8507      1.00000
     75      -9.6145      1.00000
     76      -9.6130      1.00000
     77      -9.5355      1.00000
     78      -9.5187      1.00000
     79      -9.4495      1.00000
     80      -9.4236      1.00000
     81      -9.0378      1.00000
     82      -9.0335      1.00000
     83      -8.2518      1.00000
     84      -7.9931      1.00000
     85      -7.8570      1.00000
     86      -7.8224      1.00000
     87      -7.8176      1.00000
     88      -7.4370      1.00000
     89      -7.4350      1.00000
     90      -7.2009      1.00000
     91      -7.1094      1.00000
     92      -7.1035      1.00000
     93      -6.8056      1.00000
     94      -5.5061      0.00000
     95      -0.9944      0.00000
     96      -0.9462      0.00000
     97      -0.6971      0.00000
     98      -0.6911      0.00000
     99      -0.6314      0.00000
    100      -0.4347      0.00000
    101      -0.4079      0.00000
    102      -0.3313      0.00000
    103      -0.1237      0.00000
    104       0.0052      0.00000
    105       0.0538      0.00000
    106       0.0960      0.00000
    107       0.1771      0.00000
    108       0.2244      0.00000
    109       0.2641      0.00000
    110       0.3450      0.00000
    111       0.3719      0.00000
    112       0.5139      0.00000
    113       0.6751      0.00000
    114       0.7953      0.00000
    115       0.8925      0.00000
    116       0.8965      0.00000
    117       0.9664      0.00000
    118       1.0056      0.00000
    119       1.1001      0.00000
    120       1.1240      0.00000
    121       1.2186      0.00000
    122       1.2421      0.00000
    123       1.3638      0.00000
    124       1.4188      0.00000
    125       1.4504      0.00000
    126       1.4700      0.00000
    127       1.5686      0.00000
    128       1.6439      0.00000
    129       1.7269      0.00000
    130       1.7724      0.00000
    131       1.8027      0.00000
    132       1.8570      0.00000
    133       1.8606      0.00000
    134       1.8669      0.00000
    135       1.8811      0.00000
    136       1.8941      0.00000
    137       1.9396      0.00000
    138       2.0241      0.00000
    139       2.0584      0.00000
    140       2.1094      0.00000
    141       2.1305      0.00000
    142       2.1745      0.00000
    143       2.1988      0.00000
    144       2.2675      0.00000
    145       2.4653      0.00000
    146       2.5574      0.00000
    147       2.5733      0.00000
    148       2.5896      0.00000
    149       2.6365      0.00000
    150       2.6564      0.00000
    151       2.7200      0.00000
    152       2.7842      0.00000
    153       2.7912      0.00000
    154       2.8453      0.00000
    155       2.8612      0.00000
    156       2.8851      0.00000
    157       2.9152      0.00000
    158       2.9472      0.00000
    159       3.0232      0.00000
    160       3.0418      0.00000
    161       3.0716      0.00000
    162       3.1037      0.00000
    163       3.2011      0.00000
    164       3.2758      0.00000
    165       3.3058      0.00000
    166       3.4170      0.00000
    167       3.5308      0.00000
    168       3.5818      0.00000
    169       3.6250      0.00000
    170       3.6416      0.00000
    171       3.6999      0.00000
    172       3.7812      0.00000
    173       3.8030      0.00000
    174       3.8210      0.00000
    175       3.9439      0.00000
    176       4.0031      0.00000
    177       4.0119      0.00000
    178       4.0245      0.00000
    179       4.0719      0.00000
    180       4.1188      0.00000
    181       4.1825      0.00000
    182       4.2096      0.00000
    183       4.2466      0.00000
    184       4.2862      0.00000
    185       4.3414      0.00000
    186       4.3448      0.00000
    187       4.3626      0.00000
    188       4.4117      0.00000
    189       4.4415      0.00000
    190       4.4722      0.00000
    191       4.5042      0.00000
    192       4.5571      0.00000

 k-point     4 :       0.3750    0.1250    0.0000
  band No.  band energies     occupation 
      1     -38.8254      1.00000
      2     -37.0932      1.00000
      3     -36.7442      1.00000
      4     -34.3985      1.00000
      5     -34.3664      1.00000
      6     -30.9626      1.00000
      7     -29.9628      1.00000
      8     -24.7750      1.00000
      9     -24.6220      1.00000
     10     -24.3222      1.00000
     11     -23.8878      1.00000
     12     -23.3440      1.00000
     13     -23.0878      1.00000
     14     -22.9741      1.00000
     15     -22.7569      1.00000
     16     -22.7393      1.00000
     17     -22.4585      1.00000
     18     -22.2834      1.00000
     19     -22.1682      1.00000
     20     -22.1154      1.00000
     21     -21.7949      1.00000
     22     -21.7798      1.00000
     23     -21.5142      1.00000
     24     -21.3673      1.00000
     25     -19.8405      1.00000
     26     -18.5772      1.00000
     27     -18.1843      1.00000
     28     -17.2033      1.00000
     29     -16.7939      1.00000
     30     -16.4665      1.00000
     31     -15.3038      1.00000
     32     -15.1051      1.00000
     33     -14.9803      1.00000
     34     -14.9632      1.00000
     35     -14.9159      1.00000
     36     -14.6965      1.00000
     37     -14.6488      1.00000
     38     -14.5864      1.00000
     39     -14.5330      1.00000
     40     -14.5298      1.00000
     41     -14.0571      1.00000
     42     -14.0313      1.00000
     43     -13.6826      1.00000
     44     -13.5242      1.00000
     45     -13.3935      1.00000
     46     -13.3644      1.00000
     47     -13.2040      1.00000
     48     -13.1672      1.00000
     49     -13.1606      1.00000
     50     -13.1274      1.00000
     51     -12.8609      1.00000
     52     -12.7566      1.00000
     53     -12.4778      1.00000
     54     -12.2869      1.00000
     55     -12.2569      1.00000
     56     -11.8424      1.00000
     57     -11.7623      1.00000
     58     -11.6346      1.00000
     59     -11.4703      1.00000
     60     -11.3434      1.00000
     61     -11.2895      1.00000
     62     -11.2619      1.00000
     63     -11.1392      1.00000
     64     -11.0061      1.00000
     65     -10.9328      1.00000
     66     -10.8614      1.00000
     67     -10.7347      1.00000
     68     -10.5018      1.00000
     69     -10.4385      1.00000
     70     -10.4112      1.00000
     71     -10.2771      1.00000
     72     -10.1783      1.00000
     73     -10.1452      1.00000
     74      -9.7527      1.00000
     75      -9.5422      1.00000
     76      -9.5211      1.00000
     77      -9.3848      1.00000
     78      -9.3139      1.00000
     79      -9.0432      1.00000
     80      -9.0338      1.00000
     81      -8.8743      1.00000
     82      -8.7617      1.00000
     83      -8.5641      1.00000
     84      -8.5428      1.00000
     85      -8.4696      1.00000
     86      -8.2178      1.00000
     87      -8.1313      1.00000
     88      -7.7071      1.00000
     89      -7.6230      1.00000
     90      -7.1288      1.00000
     91      -7.1101      1.00000
     92      -6.6914      1.00000
     93      -6.4538      0.96399
     94      -5.5062      0.00000
     95      -0.9683      0.00000
     96      -0.8906      0.00000
     97      -0.7965      0.00000
     98      -0.6938      0.00000
     99      -0.6677      0.00000
    100      -0.4203      0.00000
    101      -0.2795      0.00000
    102      -0.0561      0.00000
    103      -0.0504      0.00000
    104       0.0069      0.00000
    105       0.0400      0.00000
    106       0.1206      0.00000
    107       0.1859      0.00000
    108       0.2198      0.00000
    109       0.3026      0.00000
    110       0.3972      0.00000
    111       0.4399      0.00000
    112       0.4931      0.00000
    113       0.6340      0.00000
    114       0.6792      0.00000
    115       0.7185      0.00000
    116       0.8010      0.00000
    117       0.8496      0.00000
    118       0.8988      0.00000
    119       0.9306      0.00000
    120       0.9984      0.00000
    121       1.0750      0.00000
    122       1.1286      0.00000
    123       1.1988      0.00000
    124       1.2400      0.00000
    125       1.2604      0.00000
    126       1.3705      0.00000
    127       1.4142      0.00000
    128       1.4568      0.00000
    129       1.6143      0.00000
    130       1.6791      0.00000
    131       1.7284      0.00000
    132       1.7738      0.00000
    133       1.8720      0.00000
    134       1.9081      0.00000
    135       1.9346      0.00000
    136       1.9566      0.00000
    137       1.9726      0.00000
    138       2.0100      0.00000
    139       2.1553      0.00000
    140       2.1908      0.00000
    141       2.3136      0.00000
    142       2.4037      0.00000
    143       2.4582      0.00000
    144       2.5632      0.00000
    145       2.6052      0.00000
    146       2.6361      0.00000
    147       2.6717      0.00000
    148       2.7115      0.00000
    149       2.8130      0.00000
    150       2.9123      0.00000
    151       2.9307      0.00000
    152       3.0103      0.00000
    153       3.0461      0.00000
    154       3.0567      0.00000
    155       3.1192      0.00000
    156       3.1476      0.00000
    157       3.1845      0.00000
    158       3.2053      0.00000
    159       3.2608      0.00000
    160       3.2961      0.00000
    161       3.3401      0.00000
    162       3.4248      0.00000
    163       3.4331      0.00000
    164       3.4723      0.00000
    165       3.5113      0.00000
    166       3.5350      0.00000
    167       3.5805      0.00000
    168       3.6396      0.00000
    169       3.6783      0.00000
    170       3.7001      0.00000
    171       3.7124      0.00000
    172       3.7479      0.00000
    173       3.7826      0.00000
    174       3.8816      0.00000
    175       3.9153      0.00000
    176       3.9344      0.00000
    177       3.9873      0.00000
    178       4.0340      0.00000
    179       4.0686      0.00000
    180       4.1287      0.00000
    181       4.1539      0.00000
    182       4.1934      0.00000
    183       4.2103      0.00000
[...]
   13        0.000  -0.000   0.000   0.000
   14        0.000   0.000   0.000   0.000
   15        0.000   0.000   0.000   0.000
   16        0.000   0.000   0.000   0.000
   17        0.000   0.000   0.000   0.000
   18        0.000   0.000   0.000   0.000
   19       -0.000   0.000   0.000   0.000
   20        0.000   0.000   0.000   0.000
   21       -0.000   0.000   0.000   0.000
   22        0.000   0.000   0.000   0.000
   23        0.000   0.000   0.000   0.000
   24       -0.000   0.000   0.000   0.000
   25        0.000   0.000   0.000   0.000
   26        0.000   0.000   0.000   0.000
   27       -0.000   0.000   0.000   0.000
   28        0.000   0.000   0.000   0.000
   29       -0.000  -0.000   0.000  -0.000
   30       -0.000  -0.000   0.000  -0.000
   31       -0.000   0.000   0.000   0.000
   32        0.000   0.000   0.000   0.000
   33        0.000   0.000   0.000   0.000
   34        0.000  -0.000   0.000  -0.000
   35       -0.000   0.000   0.000   0.000
   36        0.000   0.000   0.000   0.000
   37       -0.000  -0.000   0.000  -0.000
   38        0.000   0.000   0.000   0.000
   39       -0.000   0.000   0.000   0.000
   40       -0.000  -0.000   0.000  -0.000
   41        0.000   0.000   0.000   0.000
   42        0.000   0.000   0.000   0.000
--------------------------------------------------
tot          0.000   0.000   0.000   0.000
 
    CHARGE:  cpu time    1.0970: real time    0.7317
    FORLOC:  cpu time    0.1592: real time    0.0798
    FORNL :  cpu time    5.1390: real time    2.5758
    STRESS:  cpu time  124.8583: real time  105.3945
    FORCOR:  cpu time    0.5957: real time    0.4700
    FORHAR:  cpu time    0.0517: real time    0.0518
    MIXING:  cpu time    0.0306: real time    0.0307
    OFIELD:  cpu time    0.0001: real time    0.0001

  FORCE on cell =-STRESS in cart. coord.  units (eV):
  Direction    XX          YY          ZZ          XY          YZ          ZX
  --------------------------------------------------------------------------------------
  Alpha Z    57.55240    57.55240    57.55240
  Ewald   68074.23548 68019.75421-71918.91694  -136.84849   123.31240   -12.68982
  Hartree 68193.08435 68490.02697-64723.59316   120.04375    54.98824    32.99730
  E(xc)    -830.93259  -830.92279  -835.71566     0.02043     0.31341     0.29242
  Local  ************************134173.52188   -29.88703  -178.67062   -39.18663
  n-local  -491.40356  -484.45252  -482.99676     5.21204    -2.09340    -0.01786
  augment   118.61128   122.46584   129.46100     3.40628     0.74044     1.72442
  Kinetic  3251.75395  3312.07206  3597.34360    42.89091    -0.61704    16.17985
  Fock        0.00000     0.00000     0.00000     0.00000     0.00000     0.00000
  -------------------------------------------------------------------------------------
  Total     -12.60217    -7.01630    -3.34363     4.83789    -2.02656    -0.70032
  in kB      -6.57525    -3.66079    -1.74456     2.52419    -1.05737    -0.36540
  external pressure =       -3.99 kB  Pullay stress =        0.00 kB


 VOLUME and BASIS-vectors are now :
 -----------------------------------------------------------------------------
  energy-cutoff  :      550.00
  volume of cell :     3070.74
      direct lattice vectors                 reciprocal lattice vectors
     5.024366704 -8.702497373  0.000000000     0.099515029 -0.057454772  0.000000000
     5.024366704  8.702497373  0.000000000     0.099515029  0.057454772  0.000000000
     0.000000000  0.000000000 35.114664386     0.000000000  0.000000000  0.028478131

  length of vectors
    10.048767154 10.048767154 35.114664386     0.114909929  0.114909929  0.028478131


 FORCES acting on ions
    electron-ion (+dipol)            ewald-force                    non-local-force                 convergence-correction
 -----------------------------------------------------------------------------------------------
   0.103E+02 -.384E+01 0.124E+03   -.107E+02 0.399E+01 -.126E+03   0.117E-01 -.892E-02 0.302E-02   -.152E-03 -.971E-04 0.101E-02
   0.100E+02 -.527E+01 0.125E+03   -.103E+02 0.558E+01 -.127E+03   0.156E-01 -.482E-02 0.389E-02   -.379E-04 0.166E-03 0.975E-03
   0.738E+01 -.417E+01 0.127E+03   -.741E+01 0.425E+01 -.129E+03   0.132E-01 -.105E-01 0.680E-02   -.229E-03 -.147E-03 0.849E-03
   0.467E+01 -.538E+01 0.123E+03   -.483E+01 0.534E+01 -.125E+03   0.718E-02 -.407E-02 0.340E-02   -.134E-03 0.263E-03 0.104E-02
   0.951E+01 0.251E+00 0.138E+03   -.989E+01 -.484E+00 -.141E+03   0.620E-02 0.263E-02 -.176E-02   0.329E-03 -.218E-03 0.115E-02
   0.947E+01 -.544E+01 0.150E+03   -.975E+01 0.568E+01 -.153E+03   0.181E-01 -.877E-02 -.149E-01   0.431E-03 -.311E-03 0.845E-03
   0.565E+01 -.473E+01 0.143E+03   -.563E+01 0.516E+01 -.146E+03   0.696E-02 0.109E-02 -.265E-02   0.365E-03 -.905E-04 0.110E-02
   0.340E+01 -.645E+01 0.143E+03   -.348E+01 0.641E+01 -.145E+03   -.432E-02 -.992E-02 -.170E-01   0.661E-03 -.309E-03 0.717E-03
   -.714E+01 0.513E+01 0.135E+03   0.715E+01 -.556E+01 -.137E+03   -.103E-01 0.910E-02 -.524E-02   -.242E-03 -.146E-03 0.936E-03
   -.464E+01 0.103E+02 0.148E+03   0.479E+01 -.107E+02 -.151E+03   -.517E-02 0.244E-01 -.133E-01   0.295E-04 0.225E-03 0.120E-02
   -.113E+02 0.213E+00 0.145E+03   0.118E+02 -.307E-01 -.147E+03   -.213E-01 0.160E-02 -.563E-02   -.477E-04 -.107E-03 0.941E-03
   -.105E+02 0.394E+01 0.139E+03   0.108E+02 -.382E+01 -.141E+03   -.196E-01 0.713E-03 -.579E-02   -.156E-04 0.224E-03 0.127E-02
   -.519E+01 0.282E+01 0.119E+03   0.510E+01 -.280E+01 -.121E+03   -.758E-03 0.383E-03 0.731E-02   -.278E-03 0.233E-03 0.144E-02
   -.364E+01 0.696E+01 0.122E+03   0.375E+01 -.725E+01 -.124E+03   0.287E-02 0.682E-02 0.510E-02   -.147E-03 0.150E-03 0.109E-02
   -.952E+01 0.416E+01 0.127E+03   0.991E+01 -.435E+01 -.130E+03   -.655E-02 0.448E-02 0.360E-02   -.277E-03 0.261E-03 0.137E-02
   -.857E+01 0.155E+01 0.121E+03   0.878E+01 -.145E+01 -.123E+03   -.656E-02 -.207E-02 0.304E-02   -.182E-03 0.124E-03 0.112E-02
   0.105E+02 -.471E+01 0.199E+03   -.110E+02 0.503E+01 -.202E+03   0.156E-01 -.536E-02 -.400E-01   -.444E-03 0.849E-04 0.424E-02
   0.892E+01 -.123E+01 0.201E+03   -.896E+01 0.132E+01 -.204E+03   0.623E-02 -.213E-02 -.416E-01   -.426E-03 0.498E-03 0.699E-03
   0.140E+01 -.436E+01 0.204E+03   -.123E+01 0.421E+01 -.207E+03   0.535E-04 -.483E-02 -.413E-01   0.253E-03 0.496E-03 0.467E-02
   0.387E+01 -.400E+01 0.198E+03   -.413E+01 0.408E+01 -.201E+03   0.259E-02 0.254E-02 -.187E-01   -.507E-03 -.239E-03 0.138E-02
   0.243E+02 -.477E+01 0.231E+03   -.252E+02 0.485E+01 -.235E+03   0.451E-01 0.579E-02 0.117E-01   0.377E-03 0.566E-04 0.293E-02
   0.176E+02 -.138E+02 0.231E+03   -.180E+02 0.146E+02 -.235E+03   0.300E-01 -.287E-01 0.180E-01   0.962E-04 -.542E-03 0.320E-02
   0.142E+02 -.100E+02 0.231E+03   -.144E+02 0.104E+02 -.234E+03   0.324E-01 -.172E-01 -.154E-02   0.311E-03 -.557E-03 0.252E-02
   0.120E+02 -.106E+02 0.221E+03   -.125E+02 0.104E+02 -.224E+03   0.190E-01 -.245E-01 0.730E-02   0.285E-03 -.723E-03 0.297E-02
   0.138E+01 0.126E+02 0.235E+03   -.158E+01 -.134E+02 -.239E+03   0.219E-01 0.218E-01 0.147E-01   0.161E-03 -.606E-03 0.299E-02
   -.549E+01 0.135E+01 0.256E+03   0.574E+01 -.137E+01 -.261E+03   -.653E-02 0.282E-02 0.571E-01   0.152E-03 -.458E-03 0.559E-03
   -.995E+01 0.230E+00 0.238E+03   0.106E+02 0.356E+00 -.242E+03   -.159E-01 -.975E-02 -.676E-02   0.722E-03 -.379E-03 0.314E-02
   -.111E+02 0.137E-01 0.239E+03   0.113E+02 -.289E+00 -.242E+03   -.254E-01 0.752E-02 0.104E+00   0.140E-03 -.142E-03 0.269E-04
   -.120E+02 0.108E+02 0.205E+03   0.120E+02 -.113E+02 -.208E+03   -.471E-02 0.161E-01 -.318E-01   -.530E-03 0.169E-03 0.232E-02
   -.149E+02 0.171E+02 0.221E+03   0.154E+02 -.178E+02 -.225E+03   -.319E-01 0.212E-01 -.945E-02   -.819E-03 -.496E-03 0.458E-02
   -.227E+02 0.440E+01 0.217E+03   0.235E+02 -.437E+01 -.221E+03   -.332E-01 0.191E-01 0.495E-02   -.718E-03 0.520E-03 0.164E-02
   -.182E+02 0.687E+01 0.207E+03   0.184E+02 -.668E+01 -.210E+03   -.211E-01 0.262E-02 -.424E-01   -.929E-03 -.216E-03 0.508E-02
   0.808E+01 0.209E+02 -.403E+03   -.797E+01 -.209E+02 0.405E+03   0.116E+01 0.129E+01 0.365E+01   -.328E-03 -.205E-02 -.495E-03
   0.925E+01 0.192E+02 -.378E+03   -.484E+01 -.145E+02 0.392E+03   -.402E+01 -.421E+01 -.128E+02   0.167E-02 -.878E-04 -.335E-02
   -.103E+02 -.351E+02 -.357E+03   0.101E+02 0.356E+02 0.357E+03   -.118E-01 -.259E-01 -.105E+00   0.177E-02 -.179E-02 -.270E-02
   -.514E+03 0.277E+02 -.804E+03   0.582E+03 -.293E+02 0.815E+03   -.627E+02 0.224E+01 -.399E+01   0.908E-02 -.383E-02 -.419E-02
   0.191E+03 0.294E+03 -.112E+04   -.215E+03 -.330E+03 0.118E+04   0.249E+02 0.367E+02 -.443E+02   0.178E-02 -.515E-04 -.107E-01
   0.159E+03 -.442E+03 -.859E+03   -.179E+03 0.506E+03 0.876E+03   0.193E+02 -.589E+02 -.890E+01   -.483E-02 0.304E-02 -.283E-02
   -.222E+03 0.312E+03 -.342E+03   0.271E+03 -.365E+03 0.297E+03   -.446E+02 0.493E+02 0.412E+02   0.697E-02 -.234E-02 -.153E-01
   0.412E+03 -.103E+03 -.401E+03   -.484E+03 0.132E+03 0.367E+03   0.669E+02 -.259E+02 0.312E+02   0.109E-01 0.242E-02 -.144E-01
   -.273E+03 0.748E+02 -.487E+03   0.336E+03 -.101E+03 0.475E+03   -.605E+02 0.254E+02 0.106E+02   0.268E-02 -.435E-02 -.791E-02
   0.244E+03 -.160E+03 -.583E+03   -.308E+03 0.188E+03 0.594E+03   0.606E+02 -.253E+02 -.102E+02   0.266E-03 -.336E-02 -.352E-02
 -----------------------------------------------------------------------------------------------
   -.107E+01 -.572E+00 -.631E+01   0.568E-13 0.142E-12 -.125E-11   0.110E+01 0.584E+00 0.632E+01   0.282E-01 -.147E-01 -.546E-02
 
 
 POSITION                                       TOTAL-FORCE (eV/Angst)
 -----------------------------------------------------------------------------------
      1.25505     -0.72498     17.60092        -0.004923     -0.005458     -0.001299
      2.51099      1.45041     17.60168         0.000713      0.008369     -0.002302
      3.76726      3.62626     17.60218        -0.006040     -0.005746     -0.001025
      5.02335      5.80166     17.60061        -0.000062      0.008326     -0.001768
      2.51128     -2.90091     17.59511        -0.000491      0.002506     -0.003576
      3.76698     -0.72498     17.59310         0.005741     -0.004767     -0.000349
      5.02343      1.45032     17.59595        -0.000125      0.003309     -0.002903
      6.27974      3.62638     17.59183         0.007564     -0.004243      0.000590
      3.76770     -5.07669     17.59657        -0.007282     -0.005169     -0.000604
      5.02366     -2.90161     17.59447         0.001368      0.009869     -0.000727
      6.28019     -0.72526     17.59686        -0.005161     -0.004900     -0.001714
      7.53619      1.45036     17.59699         0.000448      0.009058     -0.000657
      5.02352     -7.25212     17.60367         0.000956      0.002596     -0.002221
      6.27948     -5.07664     17.60307         0.006744     -0.003337     -0.002099
      7.53585     -2.90100     17.60169        -0.000482      0.002177     -0.002206
      8.79188     -0.72511     17.60246         0.005445     -0.003238     -0.001347
      1.25522      0.72520     17.60420         0.000977     -0.000762     -0.002495
      2.51137      2.90077     17.60462         0.000396      0.000958      0.000439
      3.76741      5.07638     17.60363         0.003166     -0.000078     -0.002491
      5.02351      7.25208     17.60283         0.000252     -0.000117      0.001087
      2.51144     -1.45047     17.59754         0.000268      0.002949     -0.001985
      3.76751      0.72517     17.59790        -0.001749     -0.001653     -0.002898
      5.02380      2.90076     17.59901        -0.000527      0.001253     -0.000337
      6.27968      5.07651     17.59677        -0.001823     -0.001939     -0.001981
      3.76743     -3.62606     17.59648         0.001786     -0.001980     -0.002969
      5.02347     -1.45057     17.59654        -0.000373     -0.000095      0.001347
      6.27964      0.72524     17.59919         0.002203     -0.001750     -0.003229
      7.53557      2.90088     17.59250        -0.000091      0.001014      0.003399
      5.02346     -5.80171     17.60291         0.000629      0.001155     -0.001257
      6.27961     -3.62602     17.60125        -0.001690     -0.003201     -0.003066
      7.53567     -1.45050     17.60149         0.000571      0.002100     -0.000636
      8.79177      0.72528     17.60316        -0.001665     -0.003177     -0.003053
      5.05144     -1.07648     23.16488         0.002649      0.003117     -0.000200
      4.60150     -1.55932     21.75620        -0.010987      0.000745      0.011393
      6.36819      2.84864     21.30136         0.013045     -0.002701     -0.003061
      6.37276     -1.13544     23.22000        -0.002034     -0.002983      0.004744
      4.51595     -1.86354     24.08511        -0.004737     -0.005196      0.012687
      4.62887      0.16924     23.32457        -0.002466     -0.000136      0.006552
      5.30360     -2.33690     21.09569        -0.000188     -0.000709      0.003982
      3.54562     -1.14974     21.25457        -0.000196     -0.003349      0.008604
      7.42702      2.40303     21.11519        -0.002137      0.004042      0.002522
      5.30679      3.29194     21.47754         0.000311      0.003138     -0.002891
 -----------------------------------------------------------------------------------
    total drift:                                0.062967     -0.002742      0.010320


--------------------------------------------------------------------------------------------------------



  FREE ENERGIE OF THE ION-ELECTRON SYSTEM (eV)
  ---------------------------------------------------
  free  energy   TOTEN  =      -379.85742948 eV

  energy  without entropy=     -379.85310730  energy(sigma->0) =     -379.85526839
 
 d Force = 0.2363290E-04[ 0.739E-05, 0.399E-04]  d Energy = 0.2411223E-04-0.479E-06
 d Force = 0.1105933E+01[ 0.111E+01, 0.111E+01]  d Ewald  = 0.1105933E+01 0.510E-08


--------------------------------------------------------------------------------------------------------


    POTLOK:  cpu time    5.7510: real time    5.5594


--------------------------------------------------------------------------------------------------------


 Conjugate gradient step on ions:
 trial-energy change:   -0.000024  1 .order   -0.000024   -0.000040   -0.000007
  (g-gl).g = 0.212E-03      g.g   = 0.200E-03  gl.gl    = 0.138E-03
 g(Force)  = 0.200E-03   g(Stress)= 0.000E+00 ortho     =-0.144E-04
 gamma     =   1.54124
 trial     =   0.22370
 opt step  =   0.27461  (harmonic =   0.27461) maximal distance =0.00046294
 next E    =  -379.857430   (d E  =  -0.00002)


--------------------------------------------------------------------------------------------------------


  
 reached required accuracy - stopping structural energy minimisation
 writing wavefunctions
     LOOP+:  cpu time  550.3128: real time  392.1665
    4ORBIT:  cpu time    0.0000: real time    0.0000
 


 total charge     
 
# of ion       s       p       d       tot
------------------------------------------
    1        0.744   1.393   0.000   2.137
    2        0.744   1.393   0.000   2.137
    3        0.744   1.393   0.000   2.136
    4        0.744   1.393   0.000   2.137
    5        0.744   1.393   0.000   2.137
    6        0.744   1.394   0.000   2.138
    7        0.744   1.393   0.000   2.137
    8        0.744   1.394   0.000   2.138
    9        0.744   1.393   0.000   2.137
   10        0.744   1.394   0.000   2.138
   11        0.744   1.393   0.000   2.137
   12        0.744   1.393   0.000   2.137
   13        0.744   1.393   0.000   2.137
   14        0.744   1.393   0.000   2.137
   15        0.744   1.393   0.000   2.137
   16        0.744   1.393   0.000   2.137
   17        1.239   2.821   0.000   4.059
   18        1.239   2.820   0.000   4.059
   19        1.239   2.821   0.000   4.059
   20        1.239   2.820   0.000   4.059
   21        1.239   2.820   0.000   4.059
   22        1.239   2.820   0.000   4.059
   23        1.239   2.820   0.000   4.058
   24        1.239   2.820   0.000   4.059
   25        1.239   2.820   0.000   4.059
   26        1.238   2.820   0.000   4.058
   27        1.239   2.820   0.000   4.059
   28        1.239   2.820   0.000   4.059
   29        1.239   2.820   0.000   4.059
   30        1.239   2.820   0.000   4.059
   31        1.239   2.820   0.000   4.059
   32        1.239   2.820   0.000   4.059
   33        0.805   1.575   0.000   2.380
   34        0.879   1.545   0.000   2.424
   35        0.945   1.794   0.000   2.738
   36        1.760   4.413   0.000   6.174
   37        1.761   4.410   0.000   6.171
   38        1.761   4.412   0.000   6.173
   39        1.768   4.408   0.000   6.176
   40        1.768   4.407   0.000   6.176
   41        1.608   3.595   0.000   5.203
   42        1.608   3.595   0.000   5.204
--------------------------------------------------
tot         46.384 101.568   0.000 147.952
 


 magnetization (x)
 
# of ion       s       p       d       tot
------------------------------------------
    1       -0.000  -0.000   0.000  -0.000
    2        0.000   0.000   0.000   0.000
    3        0.000   0.000   0.000   0.000
    4        0.000  -0.000   0.000  -0.000
    5        0.000  -0.000   0.000   0.000
    6       -0.000  -0.000   0.000  -0.000
    7       -0.000   0.000   0.000   0.000
    8       -0.000  -0.000   0.000  -0.000
    9        0.000   0.000   0.000   0.000
   10       -0.000  -0.000   0.000  -0.000
   11       -0.000  -0.000   0.000  -0.000
   12        0.000  -0.000   0.000  -0.000
   13        0.000  -0.000   0.000   0.000
   14        0.000   0.000   0.000   0.000
   15        0.000   0.000   0.000   0.000
   16        0.000   0.000   0.000   0.000
   17        0.000   0.000   0.000   0.000
   18        0.000   0.000   0.000   0.000
   19       -0.000   0.000   0.000   0.000
   20        0.000   0.000   0.000   0.000
   21       -0.000   0.000   0.000   0.000
   22        0.000   0.000   0.000   0.000
   23        0.000   0.000   0.000   0.000
   24       -0.000   0.000   0.000   0.000
   25        0.000   0.000   0.000   0.000
   26        0.000   0.000   0.000   0.000
   27       -0.000   0.000   0.000   0.000
   28        0.000   0.000   0.000   0.000
   29       -0.000  -0.000   0.000  -0.000
   30       -0.000  -0.000   0.000  -0.000
   31       -0.000   0.000   0.000   0.000
   32        0.000   0.000   0.000   0.000
   33        0.000   0.000   0.000   0.000
   34        0.000  -0.000   0.000  -0.000
   35       -0.000   0.000   0.000   0.000
   36        0.000   0.000   0.000   0.000
   37       -0.000  -0.000   0.000  -0.000
   38        0.000   0.000   0.000   0.000
   39       -0.000   0.000   0.000   0.000
   40       -0.000  -0.000   0.000  -0.000
   41        0.000   0.000   0.000   0.000
   42        0.000   0.000   0.000   0.000
--------------------------------------------------
tot          0.000   0.000   0.000   0.000
 

 total amount of memory used by VASP MPI-rank0   470236. kBytes
=======================================================================

   base      :      30000. kBytes
   nonlr-proj:      18668. kBytes
   fftplans  :      12568. kBytes
   grid      :     269839. kBytes
   one-center:        258. kBytes
   wavefun   :     138903. kBytes
 
  
  
 General timing and accounting informations for this job:
 ========================================================
  
                  Total CPU time used (sec):     3651.700
                            User time (sec):     3464.309
                          System time (sec):      187.390
                         Elapsed time (sec):     2593.959
  
                   Maximum memory used (kb):     1188440.
                   Average memory used (kb):           0.
  
                          Minor page faults:      1126954
                          Major page faults:            0
                 Voluntary context switches:        33014
